<?xml version="1.0" encoding="UTF-8"?>

<!-- generated on 2024-01-17 10:55:58 by Eclipse SUMO sumo Version 1.18.0
<configuration xmlns:xsi="http://www.w3.org/2001/XMLSchema-instance" xsi:noNamespaceSchemaLocation="http://sumo.dlr.de/xsd/sumoConfiguration.xsd">

    <input>
        <net-file value="/home/yuyi/Documents/githubs/DTM/DTM/data/network.net.xml"/>
        <route-files value="/home/yuyi/Documents/githubs/DTM/DTM/data/flow.rou.xml"/>
    </input>

    <output>
        <summary-output value="/home/yuyi/Documents/githubs/DTM/DTM/data/summary.out.xml"/>
        <tripinfo-output value="/home/yuyi/Documents/githubs/DTM/DTM/data/tripinfo.out.xml"/>
    </output>

    <time>
        <begin value="0"/>
        <step-length value="0.1"/>
    </time>

    <processing>
        <route-steps value="200"/>
        <time-to-teleport value="1000.0"/>
        <eager-insert value="true"/>
    </processing>

    <traci_server>
        <remote-port value="42355"/>
    </traci_server>

    <random_number>
        <seed value="12345"/>
    </random_number>

    <gui_only>
        <gui-settings-file value="/home/yuyi/Documents/githubs/DTM/DTM/data/example.view.xml"/>
    </gui_only>

</configuration>
-->

<tripinfos xmlns:xsi="http://www.w3.org/2001/XMLSchema-instance" xsi:noNamespaceSchemaLocation="http://sumo.dlr.de/xsd/tripinfo_file.xsd">
</tripinfos>
