<?xml version="1.0" encoding="UTF-8"?>

<!-- generated on 2023-10-16 16:31:01 by Eclipse SUMO GUI Version 1.18.0
<configuration xmlns:xsi="http://www.w3.org/2001/XMLSchema-instance" xsi:noNamespaceSchemaLocation="http://sumo.dlr.de/xsd/sumoConfiguration.xsd">

    <input>
        <net-file value="C:\Users\yaoshengyue\Desktop\project\DTM\data\network.net.xml"/>
        <route-files value="C:\Users\yaoshengyue\Desktop\project\DTM\data\flow.rou.xml"/>
    </input>

    <output>
        <summary-output value="C:\Users\yaoshengyue\Desktop\project\DTM\data\summary.out.xml"/>
        <tripinfo-output value="C:\Users\yaoshengyue\Desktop\project\DTM\data\tripinfo.out.xml"/>
    </output>

    <time>
        <begin value="0"/>
        <step-length value="0.1"/>
    </time>

    <processing>
        <route-steps value="200"/>
        <time-to-teleport value="1000.0"/>
        <eager-insert value="true"/>
    </processing>

    <traci_server>
        <remote-port value="58909"/>
    </traci_server>

    <random_number>
        <seed value="12345"/>
    </random_number>

    <gui_only>
        <gui-settings-file value="C:\Users\yaoshengyue\Desktop\project\DTM\data\example.view.xml"/>
    </gui_only>

</configuration>
-->

<tripinfos xmlns:xsi="http://www.w3.org/2001/XMLSchema-instance" xsi:noNamespaceSchemaLocation="http://sumo.dlr.de/xsd/tripinfo_file.xsd">
    <tripinfo id="2" depart="1.00" departLane="bottom0A0_0" departPos="5.10" departSpeed="0.00" departDelay="0.00" arrival="180.50" arrivalLane="A1top0_0" arrivalPos="500.00" arrivalSpeed="13.99" duration="179.50" routeLength="1494.90" waitingTime="40.80" waitingCount="2" stopTime="0.00" timeLoss="72.69" rerouteNo="0" devices="tripinfo_2 routing_2" vType="data" speedFactor="1.25" vaporized=""/>
    <tripinfo id="4" depart="2.00" departLane="bottom1B0_1" departPos="5.10" departSpeed="0.00" departDelay="0.00" arrival="180.50" arrivalLane="B1top1_1" arrivalPos="500.00" arrivalSpeed="13.99" duration="178.50" routeLength="1494.90" waitingTime="37.60" waitingCount="4" stopTime="0.00" timeLoss="71.69" rerouteNo="0" devices="tripinfo_4 routing_4" vType="human" speedFactor="1.05" vaporized=""/>
    <tripinfo id="14" depart="3.00" departLane="bottom0A0_2" departPos="5.10" departSpeed="0.00" departDelay="0.00" arrival="180.50" arrivalLane="A1top0_1" arrivalPos="500.00" arrivalSpeed="13.99" duration="177.50" routeLength="1494.90" waitingTime="39.40" waitingCount="2" stopTime="0.00" timeLoss="70.69" rerouteNo="0" devices="tripinfo_14 routing_14" vType="data" speedFactor="1.02" vaporized=""/>
    <tripinfo id="19" depart="5.40" departLane="bottom1B0_0" departPos="5.10" departSpeed="0.00" departDelay="1.40" arrival="180.50" arrivalLane="B1top1_2" arrivalPos="500.00" arrivalSpeed="13.99" duration="175.10" routeLength="1494.90" waitingTime="35.70" waitingCount="3" stopTime="0.00" timeLoss="68.29" rerouteNo="0" devices="tripinfo_19 routing_19" vType="data" speedFactor="1.09" vaporized=""/>
    <tripinfo id="22" depart="6.00" departLane="bottom0A0_0" departPos="5.10" departSpeed="0.00" departDelay="0.00" arrival="180.50" arrivalLane="A1top0_2" arrivalPos="500.00" arrivalSpeed="13.99" duration="174.50" routeLength="1494.90" waitingTime="32.20" waitingCount="4" stopTime="0.00" timeLoss="67.69" rerouteNo="0" devices="tripinfo_22 routing_22" vType="human" speedFactor="1.10" vaporized=""/>
    <tripinfo id="0" depart="1.00" departLane="bottom1B0_0" departPos="5.10" departSpeed="0.00" departDelay="0.00" arrival="181.80" arrivalLane="B1top1_0" arrivalPos="500.00" arrivalSpeed="13.34" duration="180.80" routeLength="1494.90" waitingTime="36.00" waitingCount="4" stopTime="0.00" timeLoss="68.71" rerouteNo="0" devices="tripinfo_0 routing_0" vType="human" speedFactor="0.96" vaporized=""/>
    <tripinfo id="42" depart="11.00" departLane="bottom0A0_2" departPos="5.10" departSpeed="0.00" departDelay="0.00" arrival="184.50" arrivalLane="A1top0_1" arrivalPos="500.00" arrivalSpeed="13.67" duration="173.50" routeLength="1494.90" waitingTime="33.80" waitingCount="1" stopTime="0.00" timeLoss="64.98" rerouteNo="0" devices="tripinfo_42 routing_42" vType="data" speedFactor="0.99" vaporized=""/>
    <tripinfo id="59" depart="17.00" departLane="bottom1B0_0" departPos="5.10" departSpeed="0.00" departDelay="0.00" arrival="184.90" arrivalLane="B1top1_1" arrivalPos="500.00" arrivalSpeed="13.47" duration="167.90" routeLength="1494.90" waitingTime="23.60" waitingCount="1" stopTime="0.00" timeLoss="57.41" rerouteNo="0" devices="tripinfo_59 routing_59" vType="data" speedFactor="0.97" vaporized=""/>
    <tripinfo id="36" depart="10.00" departLane="bottom1B0_1" departPos="5.10" departSpeed="0.00" departDelay="0.00" arrival="185.20" arrivalLane="B1top1_0" arrivalPos="500.00" arrivalSpeed="13.66" duration="175.20" routeLength="1494.90" waitingTime="30.00" waitingCount="1" stopTime="0.00" timeLoss="68.41" rerouteNo="0" devices="tripinfo_36 routing_36" vType="human" speedFactor="1.11" vaporized=""/>
    <tripinfo id="44" depart="12.00" departLane="bottom0A0_1" departPos="5.10" departSpeed="0.00" departDelay="0.00" arrival="185.20" arrivalLane="A1top0_0" arrivalPos="500.00" arrivalSpeed="13.81" duration="173.20" routeLength="1494.90" waitingTime="31.40" waitingCount="1" stopTime="0.00" timeLoss="66.35" rerouteNo="0" devices="tripinfo_44 routing_44" vType="human" speedFactor="1.12" vaporized=""/>
    <tripinfo id="9" depart="3.00" departLane="bottom0A0_1" departPos="5.10" departSpeed="0.00" departDelay="0.00" arrival="187.70" arrivalLane="A1top0_0" arrivalPos="500.00" arrivalSpeed="12.20" duration="184.70" routeLength="1494.90" waitingTime="34.80" waitingCount="1" stopTime="0.00" timeLoss="66.59" rerouteNo="0" devices="tripinfo_9 routing_9" vType="human" speedFactor="0.91" vaporized=""/>
    <tripinfo id="16" depart="4.00" departLane="bottom1B0_2" departPos="5.10" departSpeed="0.00" departDelay="0.00" arrival="188.40" arrivalLane="B1top1_0" arrivalPos="500.00" arrivalSpeed="12.14" duration="184.40" routeLength="1494.90" waitingTime="31.80" waitingCount="1" stopTime="0.00" timeLoss="63.46" rerouteNo="0" devices="tripinfo_16 routing_16" vType="human" speedFactor="0.89" vaporized=""/>
    <tripinfo id="57" depart="16.40" departLane="bottom0A0_0" departPos="5.10" departSpeed="0.00" departDelay="1.40" arrival="188.90" arrivalLane="A1top0_2" arrivalPos="500.00" arrivalSpeed="12.92" duration="172.50" routeLength="1494.90" waitingTime="25.90" waitingCount="2" stopTime="0.00" timeLoss="56.93" rerouteNo="0" devices="tripinfo_57 routing_57" vType="data" speedFactor="0.93" vaporized=""/>
    <tripinfo id="50" depart="15.40" departLane="bottom0A0_2" departPos="5.10" departSpeed="0.00" departDelay="2.40" arrival="189.10" arrivalLane="A1top0_1" arrivalPos="500.00" arrivalSpeed="13.74" duration="173.70" routeLength="1494.90" waitingTime="30.00" waitingCount="2" stopTime="0.00" timeLoss="66.88" rerouteNo="0" devices="tripinfo_50 routing_50" vType="human" speedFactor="1.02" vaporized=""/>
    <tripinfo id="49" depart="12.00" departLane="bottom0A0_0" departPos="5.10" departSpeed="0.00" departDelay="0.00" arrival="189.90" arrivalLane="A1top0_0" arrivalPos="500.00" arrivalSpeed="12.77" duration="177.90" routeLength="1494.90" waitingTime="35.80" waitingCount="1" stopTime="0.00" timeLoss="71.05" rerouteNo="0" devices="tripinfo_49 routing_49" vType="data" speedFactor="1.06" vaporized=""/>
    <tripinfo id="41" depart="11.00" departLane="bottom1B0_2" departPos="5.10" departSpeed="0.00" departDelay="0.00" arrival="192.80" arrivalLane="B1top1_0" arrivalPos="500.00" arrivalSpeed="12.09" duration="181.80" routeLength="1494.90" waitingTime="26.60" waitingCount="1" stopTime="0.00" timeLoss="60.18" rerouteNo="0" devices="tripinfo_41 routing_41" vType="human" speedFactor="0.88" vaporized=""/>
    <tripinfo id="6" depart="3.00" departLane="left0A0_0" departPos="5.10" departSpeed="0.00" departDelay="0.00" arrival="203.50" arrivalLane="B0right0_0" arrivalPos="500.00" arrivalSpeed="13.99" duration="200.50" routeLength="1494.90" waitingTime="40.40" waitingCount="8" stopTime="0.00" timeLoss="93.69" rerouteNo="0" devices="tripinfo_6 routing_6" vType="human" speedFactor="1.14" vaporized=""/>
    <tripinfo id="11" depart="3.00" departLane="left0A0_1" departPos="5.10" departSpeed="0.00" departDelay="0.00" arrival="203.50" arrivalLane="B0right0_1" arrivalPos="500.00" arrivalSpeed="13.99" duration="200.50" routeLength="1494.90" waitingTime="44.90" waitingCount="4" stopTime="0.00" timeLoss="93.69" rerouteNo="0" devices="tripinfo_11 routing_11" vType="data" speedFactor="1.15" vaporized=""/>
    <tripinfo id="12" depart="3.00" departLane="left0A0_2" departPos="5.10" departSpeed="0.00" departDelay="0.00" arrival="203.50" arrivalLane="B0right0_2" arrivalPos="500.00" arrivalSpeed="13.99" duration="200.50" routeLength="1494.90" waitingTime="44.90" waitingCount="4" stopTime="0.00" timeLoss="93.69" rerouteNo="0" devices="tripinfo_12 routing_12" vType="data" speedFactor="1.11" vaporized=""/>
    <tripinfo id="13" depart="3.00" departLane="left1A1_1" departPos="5.10" departSpeed="0.00" departDelay="0.00" arrival="203.50" arrivalLane="B1right1_1" arrivalPos="500.00" arrivalSpeed="13.99" duration="200.50" routeLength="1494.90" waitingTime="44.90" waitingCount="4" stopTime="0.00" timeLoss="93.69" rerouteNo="0" devices="tripinfo_13 routing_13" vType="data" speedFactor="1.05" vaporized=""/>
    <tripinfo id="18" depart="4.00" departLane="left1A1_2" departPos="5.10" departSpeed="0.00" departDelay="0.00" arrival="203.50" arrivalLane="B1right1_2" arrivalPos="500.00" arrivalSpeed="13.99" duration="199.50" routeLength="1494.90" waitingTime="43.90" waitingCount="4" stopTime="0.00" timeLoss="92.69" rerouteNo="0" devices="tripinfo_18 routing_18" vType="data" speedFactor="1.05" vaporized=""/>
    <tripinfo id="1" depart="1.00" departLane="left1A1_0" departPos="5.10" departSpeed="0.00" departDelay="0.00" arrival="205.00" arrivalLane="B1right1_0" arrivalPos="500.00" arrivalSpeed="13.22" duration="204.00" routeLength="1494.90" waitingTime="39.90" waitingCount="8" stopTime="0.00" timeLoss="90.93" rerouteNo="0" devices="tripinfo_1 routing_1" vType="human" speedFactor="0.95" vaporized=""/>
    <tripinfo id="30" depart="7.40" departLane="left0A0_2" departPos="5.10" departSpeed="0.00" departDelay="0.40" arrival="207.20" arrivalLane="B0right0_1" arrivalPos="500.00" arrivalSpeed="13.84" duration="199.80" routeLength="1494.90" waitingTime="44.30" waitingCount="3" stopTime="0.00" timeLoss="93.01" rerouteNo="0" devices="tripinfo_30 routing_30" vType="data" speedFactor="1.09" vaporized=""/>
    <tripinfo id="48" depart="13.20" departLane="left1A1_2" departPos="5.10" departSpeed="0.00" departDelay="1.20" arrival="207.20" arrivalLane="B1right1_1" arrivalPos="500.00" arrivalSpeed="13.84" duration="194.00" routeLength="1494.90" waitingTime="38.20" waitingCount="3" stopTime="0.00" timeLoss="87.21" rerouteNo="0" devices="tripinfo_48 routing_48" vType="data" speedFactor="1.09" vaporized=""/>
    <tripinfo id="29" depart="7.40" departLane="left0A0_1" departPos="5.10" departSpeed="0.00" departDelay="0.40" arrival="208.30" arrivalLane="B0right0_0" arrivalPos="500.00" arrivalSpeed="13.73" duration="200.90" routeLength="1494.90" waitingTime="38.50" waitingCount="3" stopTime="0.00" timeLoss="93.27" rerouteNo="0" devices="tripinfo_29 routing_29" vType="human" speedFactor="1.00" vaporized=""/>
    <tripinfo id="37" depart="12.20" departLane="left0A0_2" departPos="5.10" departSpeed="0.00" departDelay="2.20" arrival="208.30" arrivalLane="B0right0_1" arrivalPos="500.00" arrivalSpeed="13.75" duration="196.10" routeLength="1494.90" waitingTime="34.20" waitingCount="3" stopTime="0.00" timeLoss="88.70" rerouteNo="0" devices="tripinfo_37 routing_37" vType="human" speedFactor="1.00" vaporized=""/>
    <tripinfo id="23" depart="6.00" departLane="left1A1_0" departPos="5.10" departSpeed="0.00" departDelay="0.00" arrival="209.00" arrivalLane="B1right1_0" arrivalPos="500.00" arrivalSpeed="13.49" duration="203.00" routeLength="1494.90" waitingTime="38.70" waitingCount="2" stopTime="0.00" timeLoss="95.02" rerouteNo="0" devices="tripinfo_23 routing_23" vType="human" speedFactor="1.00" vaporized=""/>
    <tripinfo id="26" depart="7.40" departLane="left1A1_1" departPos="5.10" departSpeed="0.00" departDelay="0.40" arrival="209.30" arrivalLane="B1right1_1" arrivalPos="500.00" arrivalSpeed="12.71" duration="201.90" routeLength="1494.90" waitingTime="37.50" waitingCount="3" stopTime="0.00" timeLoss="89.42" rerouteNo="0" devices="tripinfo_26 routing_26" vType="human" speedFactor="0.96" vaporized=""/>
    <tripinfo id="64" depart="20.00" departLane="left1A1_2" departPos="5.10" departSpeed="0.00" departDelay="0.00" arrival="211.40" arrivalLane="B1right1_2" arrivalPos="500.00" arrivalSpeed="13.81" duration="191.40" routeLength="1494.90" waitingTime="32.50" waitingCount="1" stopTime="0.00" timeLoss="84.57" rerouteNo="0" devices="tripinfo_64 routing_64" vType="human" speedFactor="1.13" vaporized=""/>
    <tripinfo id="40" depart="12.20" departLane="left0A0_0" departPos="5.10" departSpeed="0.00" departDelay="1.20" arrival="212.20" arrivalLane="B0right0_0" arrivalPos="500.00" arrivalSpeed="13.64" duration="200.00" routeLength="1494.90" waitingTime="34.40" waitingCount="3" stopTime="0.00" timeLoss="93.21" rerouteNo="0" devices="tripinfo_40 routing_40" vType="human" speedFactor="1.04" vaporized=""/>
    <tripinfo id="31" depart="7.40" departLane="left0A0_0" departPos="5.10" departSpeed="0.00" departDelay="0.40" arrival="212.60" arrivalLane="B0right0_0" arrivalPos="500.00" arrivalSpeed="12.59" duration="205.20" routeLength="1494.90" waitingTime="42.00" waitingCount="3" stopTime="0.00" timeLoss="86.59" rerouteNo="0" devices="tripinfo_31 routing_31" vType="data" speedFactor="0.91" vaporized=""/>
    <tripinfo id="34" depart="10.50" departLane="left1A1_0" departPos="5.10" departSpeed="0.00" departDelay="2.50" arrival="213.00" arrivalLane="B1right1_0" arrivalPos="500.00" arrivalSpeed="13.29" duration="202.50" routeLength="1494.90" waitingTime="35.60" waitingCount="3" stopTime="0.00" timeLoss="92.69" rerouteNo="0" devices="tripinfo_34 routing_34" vType="human" speedFactor="0.98" vaporized=""/>
    <tripinfo id="45" depart="12.20" departLane="left0A0_1" departPos="5.10" departSpeed="0.00" departDelay="0.20" arrival="213.40" arrivalLane="B0right0_2" arrivalPos="500.00" arrivalSpeed="12.91" duration="201.20" routeLength="1494.90" waitingTime="30.60" waitingCount="2" stopTime="0.00" timeLoss="86.12" rerouteNo="0" devices="tripinfo_45 routing_45" vType="human" speedFactor="0.94" vaporized=""/>
    <tripinfo id="32" depart="8.40" departLane="left1A1_2" departPos="5.10" departSpeed="0.00" departDelay="1.40" arrival="215.00" arrivalLane="B1right1_0" arrivalPos="500.00" arrivalSpeed="11.68" duration="206.60" routeLength="1494.90" waitingTime="37.30" waitingCount="3" stopTime="0.00" timeLoss="81.42" rerouteNo="0" devices="tripinfo_32 routing_32" vType="data" speedFactor="0.86" vaporized=""/>
    <tripinfo id="93" depart="27.00" departLane="left1A1_2" departPos="5.10" departSpeed="0.00" departDelay="0.00" arrival="215.30" arrivalLane="B1right1_2" arrivalPos="500.00" arrivalSpeed="13.57" duration="188.30" routeLength="1494.90" waitingTime="31.10" waitingCount="1" stopTime="0.00" timeLoss="80.91" rerouteNo="0" devices="tripinfo_93 routing_93" vType="human" speedFactor="1.00" vaporized=""/>
    <tripinfo id="62" depart="20.00" departLane="left0A0_2" departPos="5.10" departSpeed="0.00" departDelay="0.00" arrival="215.80" arrivalLane="B0right0_1" arrivalPos="500.00" arrivalSpeed="13.25" duration="195.80" routeLength="1494.90" waitingTime="31.10" waitingCount="1" stopTime="0.00" timeLoss="88.98" rerouteNo="0" devices="tripinfo_62 routing_62" vType="human" speedFactor="1.05" vaporized=""/>
    <tripinfo id="83" depart="23.00" departLane="left0A0_0" departPos="5.10" departSpeed="0.00" departDelay="0.00" arrival="215.90" arrivalLane="B0right0_0" arrivalPos="500.00" arrivalSpeed="13.47" duration="192.90" routeLength="1494.90" waitingTime="30.20" waitingCount="1" stopTime="0.00" timeLoss="86.09" rerouteNo="0" devices="tripinfo_83 routing_83" vType="human" speedFactor="1.12" vaporized=""/>
    <tripinfo id="39" depart="12.20" departLane="left1A1_1" departPos="5.10" departSpeed="0.00" departDelay="2.20" arrival="216.10" arrivalLane="B1right1_1" arrivalPos="500.00" arrivalSpeed="13.58" duration="203.90" routeLength="1494.90" waitingTime="38.80" waitingCount="3" stopTime="0.00" timeLoss="97.06" rerouteNo="0" devices="tripinfo_39 routing_39" vType="data" speedFactor="1.13" vaporized=""/>
    <tripinfo id="89" depart="25.00" departLane="left0A0_1" departPos="5.10" departSpeed="0.00" departDelay="0.00" arrival="216.70" arrivalLane="B0right0_2" arrivalPos="500.00" arrivalSpeed="13.28" duration="191.70" routeLength="1494.90" waitingTime="29.40" waitingCount="1" stopTime="0.00" timeLoss="84.92" rerouteNo="0" devices="tripinfo_89 routing_89" vType="human" speedFactor="1.13" vaporized=""/>
    <tripinfo id="53" depart="15.40" departLane="left1A1_0" departPos="5.10" departSpeed="0.00" departDelay="1.40" arrival="217.10" arrivalLane="B1right1_0" arrivalPos="500.00" arrivalSpeed="11.90" duration="201.70" routeLength="1494.90" waitingTime="35.10" waitingCount="3" stopTime="0.00" timeLoss="86.23" rerouteNo="0" devices="tripinfo_53 routing_53" vType="data" speedFactor="0.93" vaporized=""/>
    <tripinfo id="98" depart="29.40" departLane="left1A1_1" departPos="5.10" departSpeed="0.00" departDelay="2.40" arrival="218.80" arrivalLane="B1right1_1" arrivalPos="500.00" arrivalSpeed="12.88" duration="189.40" routeLength="1494.90" waitingTime="32.80" waitingCount="2" stopTime="0.00" timeLoss="76.52" rerouteNo="0" devices="tripinfo_98 routing_98" vType="data" speedFactor="0.95" vaporized=""/>
    <tripinfo id="58" depart="17.10" departLane="left1A1_1" departPos="5.10" departSpeed="0.00" departDelay="0.10" arrival="218.90" arrivalLane="B1right1_2" arrivalPos="500.00" arrivalSpeed="13.49" duration="201.80" routeLength="1494.90" waitingTime="33.80" waitingCount="3" stopTime="0.00" timeLoss="94.96" rerouteNo="0" devices="tripinfo_58 routing_58" vType="human" speedFactor="1.09" vaporized=""/>
    <tripinfo id="90" depart="25.00" departLane="left1A1_1" departPos="5.10" departSpeed="0.00" departDelay="0.00" arrival="219.10" arrivalLane="B1right1_0" arrivalPos="500.00" arrivalSpeed="12.35" duration="194.10" routeLength="1494.90" waitingTime="32.40" waitingCount="1" stopTime="0.00" timeLoss="86.85" rerouteNo="0" devices="tripinfo_90 routing_90" vType="data" speedFactor="1.00" vaporized=""/>
    <tripinfo id="114" depart="30.00" departLane="left0A0_1" departPos="5.10" departSpeed="0.00" departDelay="0.00" arrival="219.10" arrivalLane="B0right0_1" arrivalPos="500.00" arrivalSpeed="13.27" duration="189.10" routeLength="1494.90" waitingTime="29.90" waitingCount="1" stopTime="0.00" timeLoss="82.25" rerouteNo="0" devices="tripinfo_114 routing_114" vType="human" speedFactor="1.05" vaporized=""/>
    <tripinfo id="123" depart="31.40" departLane="left0A0_2" departPos="5.10" departSpeed="0.00" departDelay="0.40" arrival="219.10" arrivalLane="B0right0_2" arrivalPos="500.00" arrivalSpeed="13.20" duration="187.70" routeLength="1494.90" waitingTime="31.10" waitingCount="2" stopTime="0.00" timeLoss="80.86" rerouteNo="0" devices="tripinfo_123 routing_123" vType="data" speedFactor="1.16" vaporized=""/>
    <tripinfo id="94" depart="27.00" departLane="left0A0_2" departPos="5.10" departSpeed="0.00" departDelay="0.00" arrival="220.40" arrivalLane="B0right0_0" arrivalPos="500.00" arrivalSpeed="12.79" duration="193.40" routeLength="1494.90" waitingTime="28.30" waitingCount="1" stopTime="0.00" timeLoss="78.09" rerouteNo="0" devices="tripinfo_94 routing_94" vType="human" speedFactor="0.93" vaporized=""/>
    <tripinfo id="99" depart="31.40" departLane="left1A1_2" departPos="5.10" departSpeed="0.00" departDelay="4.40" arrival="223.50" arrivalLane="B1right1_1" arrivalPos="500.00" arrivalSpeed="11.66" duration="192.10" routeLength="1494.90" waitingTime="31.70" waitingCount="2" stopTime="0.00" timeLoss="64.19" rerouteNo="0" devices="tripinfo_99 routing_99" vType="data" speedFactor="0.84" vaporized=""/>
    <tripinfo id="87" depart="24.00" departLane="left1A1_0" departPos="5.10" departSpeed="0.00" departDelay="0.00" arrival="223.80" arrivalLane="B1right1_0" arrivalPos="500.00" arrivalSpeed="11.55" duration="199.80" routeLength="1494.90" waitingTime="29.80" waitingCount="1" stopTime="0.00" timeLoss="70.89" rerouteNo="0" devices="tripinfo_87 routing_87" vType="data" speedFactor="0.83" vaporized=""/>
    <tripinfo id="20" depart="5.00" departLane="top1B1_1" departPos="5.10" departSpeed="0.00" departDelay="0.00" arrival="226.50" arrivalLane="B0bottom1_0" arrivalPos="500.00" arrivalSpeed="13.99" duration="221.50" routeLength="1494.90" waitingTime="61.30" waitingCount="8" stopTime="0.00" timeLoss="114.69" rerouteNo="0" devices="tripinfo_20 routing_20" vType="human" speedFactor="1.13" vaporized=""/>
    <tripinfo id="25" depart="6.00" departLane="top1B1_2" departPos="5.10" departSpeed="0.00" departDelay="0.00" arrival="226.50" arrivalLane="B0bottom1_1" arrivalPos="500.00" arrivalSpeed="13.98" duration="220.50" routeLength="1494.90" waitingTime="64.90" waitingCount="4" stopTime="0.00" timeLoss="113.62" rerouteNo="0" devices="tripinfo_25 routing_25" vType="data" speedFactor="1.01" vaporized=""/>
    <tripinfo id="24" depart="6.00" departLane="top0A1_0" departPos="5.10" departSpeed="0.00" departDelay="0.00" arrival="226.60" arrivalLane="A0bottom0_0" arrivalPos="500.00" arrivalSpeed="13.96" duration="220.60" routeLength="1494.90" waitingTime="64.90" waitingCount="4" stopTime="0.00" timeLoss="113.51" rerouteNo="0" devices="tripinfo_24 routing_24" vType="data" speedFactor="1.01" vaporized=""/>
    <tripinfo id="66" depart="20.00" departLane="top0A1_2" departPos="5.10" departSpeed="0.00" departDelay="0.00" arrival="226.70" arrivalLane="A0bottom0_1" arrivalPos="500.00" arrivalSpeed="13.88" duration="206.70" routeLength="1494.90" waitingTime="50.40" waitingCount="3" stopTime="0.00" timeLoss="99.02" rerouteNo="0" devices="tripinfo_66 routing_66" vType="data" speedFactor="1.00" vaporized=""/>
    <tripinfo id="10" depart="3.00" departLane="top1B1_0" departPos="5.10" departSpeed="0.00" departDelay="0.00" arrival="228.60" arrivalLane="B0bottom1_0" arrivalPos="500.00" arrivalSpeed="12.55" duration="225.60" routeLength="1494.90" waitingTime="60.30" waitingCount="8" stopTime="0.00" timeLoss="110.94" rerouteNo="0" devices="tripinfo_10 routing_10" vType="human" speedFactor="0.94" vaporized=""/>
    <tripinfo id="47" depart="12.00" departLane="top1B1_2" departPos="5.10" departSpeed="0.00" departDelay="0.00" arrival="230.20" arrivalLane="B0bottom1_2" arrivalPos="500.00" arrivalSpeed="13.90" duration="218.20" routeLength="1494.90" waitingTime="62.90" waitingCount="2" stopTime="0.00" timeLoss="111.38" rerouteNo="0" devices="tripinfo_47 routing_47" vType="data" speedFactor="1.03" vaporized=""/>
    <tripinfo id="81" depart="24.40" departLane="top0A1_1" departPos="5.10" departSpeed="0.00" departDelay="2.40" arrival="230.80" arrivalLane="A0bottom0_1" arrivalPos="500.00" arrivalSpeed="13.86" duration="206.40" routeLength="1494.90" waitingTime="45.40" waitingCount="3" stopTime="0.00" timeLoss="99.58" rerouteNo="0" devices="tripinfo_81 routing_81" vType="data" speedFactor="1.10" vaporized=""/>
    <tripinfo id="38" depart="10.00" departLane="top1B1_1" departPos="5.10" departSpeed="0.00" departDelay="0.00" arrival="231.00" arrivalLane="B0bottom1_1" arrivalPos="500.00" arrivalSpeed="13.37" duration="221.00" routeLength="1494.90" waitingTime="62.30" waitingCount="2" stopTime="0.00" timeLoss="109.70" rerouteNo="0" devices="tripinfo_38 routing_38" vType="data" speedFactor="0.97" vaporized=""/>
    <tripinfo id="46" depart="12.00" departLane="top0A1_2" departPos="5.10" departSpeed="0.00" departDelay="0.00" arrival="231.40" arrivalLane="A0bottom0_0" arrivalPos="500.00" arrivalSpeed="12.00" duration="219.40" routeLength="1494.90" waitingTime="47.30" waitingCount="7" stopTime="0.00" timeLoss="95.34" rerouteNo="0" devices="tripinfo_46 routing_46" vType="human" speedFactor="0.87" vaporized=""/>
    <tripinfo id="115" depart="30.00" departLane="top0A1_1" departPos="5.10" departSpeed="0.00" departDelay="0.00" arrival="231.40" arrivalLane="A0bottom0_2" arrivalPos="500.00" arrivalSpeed="13.52" duration="201.40" routeLength="1494.90" waitingTime="36.90" waitingCount="2" stopTime="0.00" timeLoss="90.83" rerouteNo="0" devices="tripinfo_115 routing_115" vType="human" speedFactor="0.97" vaporized=""/>
    <tripinfo id="28" depart="7.40" departLane="top1B1_0" departPos="5.10" departSpeed="0.00" departDelay="0.40" arrival="232.20" arrivalLane="B0bottom1_0" arrivalPos="500.00" arrivalSpeed="13.40" duration="224.80" routeLength="1494.90" waitingTime="59.90" waitingCount="3" stopTime="0.00" timeLoss="117.96" rerouteNo="0" devices="tripinfo_28 routing_28" vType="human" speedFactor="1.07" vaporized=""/>
    <tripinfo id="72" depart="21.00" departLane="top1B1_1" departPos="5.10" departSpeed="0.00" departDelay="0.00" arrival="233.80" arrivalLane="B0bottom1_1" arrivalPos="500.00" arrivalSpeed="13.56" duration="212.80" routeLength="1494.90" waitingTime="55.30" waitingCount="2" stopTime="0.00" timeLoss="106.02" rerouteNo="0" devices="tripinfo_72 routing_72" vType="data" speedFactor="1.11" vaporized=""/>
    <tripinfo id="80" depart="22.00" departLane="top1B1_2" departPos="5.10" departSpeed="0.00" departDelay="0.00" arrival="234.40" arrivalLane="B0bottom1_2" arrivalPos="500.00" arrivalSpeed="13.18" duration="212.40" routeLength="1494.90" waitingTime="51.50" waitingCount="2" stopTime="0.00" timeLoss="99.58" rerouteNo="0" devices="tripinfo_80 routing_80" vType="data" speedFactor="0.95" vaporized=""/>
    <tripinfo id="101" depart="28.00" departLane="top0A1_2" departPos="5.10" departSpeed="0.00" departDelay="0.00" arrival="235.30" arrivalLane="A0bottom0_1" arrivalPos="500.00" arrivalSpeed="13.33" duration="207.30" routeLength="1494.90" waitingTime="41.20" waitingCount="2" stopTime="0.00" timeLoss="96.67" rerouteNo="0" devices="tripinfo_101 routing_101" vType="human" speedFactor="0.97" vaporized=""/>
    <tripinfo id="129" depart="34.00" departLane="top0A1_2" departPos="5.10" departSpeed="0.00" departDelay="0.00" arrival="235.30" arrivalLane="A0bottom0_2" arrivalPos="500.00" arrivalSpeed="13.63" duration="201.30" routeLength="1494.90" waitingTime="35.00" waitingCount="2" stopTime="0.00" timeLoss="94.51" rerouteNo="0" devices="tripinfo_129 routing_129" vType="human" speedFactor="1.14" vaporized=""/>
    <tripinfo id="35" depart="8.00" departLane="top0A1_1" departPos="5.10" departSpeed="0.00" departDelay="0.00" arrival="235.60" arrivalLane="A0bottom0_0" arrivalPos="500.00" arrivalSpeed="11.58" duration="227.60" routeLength="1494.90" waitingTime="57.30" waitingCount="3" stopTime="0.00" timeLoss="99.21" rerouteNo="0" devices="tripinfo_35 routing_35" vType="data" speedFactor="0.84" vaporized=""/>
    <tripinfo id="69" depart="21.00" departLane="top1B1_0" departPos="5.10" departSpeed="0.00" departDelay="0.00" arrival="235.70" arrivalLane="B0bottom1_0" arrivalPos="500.00" arrivalSpeed="13.44" duration="214.70" routeLength="1494.90" waitingTime="48.50" waitingCount="2" stopTime="0.00" timeLoss="107.92" rerouteNo="0" devices="tripinfo_69 routing_69" vType="human" speedFactor="1.02" vaporized=""/>
    <tripinfo id="111" depart="29.00" departLane="top1B1_1" departPos="5.10" departSpeed="0.00" departDelay="0.00" arrival="237.30" arrivalLane="B0bottom1_1" arrivalPos="500.00" arrivalSpeed="13.13" duration="208.30" routeLength="1494.90" waitingTime="47.90" waitingCount="2" stopTime="0.00" timeLoss="95.95" rerouteNo="0" devices="tripinfo_111 routing_111" vType="data" speedFactor="0.96" vaporized=""/>
    <tripinfo id="196" depart="49.00" departLane="top0A1_2" departPos="5.10" departSpeed="0.00" departDelay="0.00" arrival="238.00" arrivalLane="A0bottom0_2" arrivalPos="500.00" arrivalSpeed="13.50" duration="189.00" routeLength="1494.90" waitingTime="29.50" waitingCount="1" stopTime="0.00" timeLoss="82.15" rerouteNo="0" devices="tripinfo_196 routing_196" vType="data" speedFactor="1.14" vaporized=""/>
    <tripinfo id="110" depart="29.00" departLane="top1B1_0" departPos="5.10" departSpeed="0.00" departDelay="0.00" arrival="238.20" arrivalLane="B0bottom1_0" arrivalPos="500.00" arrivalSpeed="13.35" duration="209.20" routeLength="1494.90" waitingTime="46.50" waitingCount="2" stopTime="0.00" timeLoss="102.42" rerouteNo="0" devices="tripinfo_110 routing_110" vType="data" speedFactor="1.03" vaporized=""/>
    <tripinfo id="124" depart="32.00" departLane="top1B1_2" departPos="5.10" departSpeed="0.00" departDelay="0.00" arrival="238.20" arrivalLane="B0bottom1_2" arrivalPos="500.00" arrivalSpeed="13.34" duration="206.20" routeLength="1494.90" waitingTime="40.90" waitingCount="2" stopTime="0.00" timeLoss="97.40" rerouteNo="0" devices="tripinfo_124 routing_124" vType="human" speedFactor="0.99" vaporized=""/>
    <tripinfo id="55" depart="15.00" departLane="top0A1_0" departPos="5.10" departSpeed="0.00" departDelay="0.00" arrival="238.40" arrivalLane="A0bottom0_0" arrivalPos="500.00" arrivalSpeed="12.43" duration="223.40" routeLength="1494.90" waitingTime="53.90" waitingCount="2" stopTime="0.00" timeLoss="115.80" rerouteNo="0" devices="tripinfo_55 routing_55" vType="human" speedFactor="1.00" vaporized=""/>
    <tripinfo id="108" depart="29.00" departLane="top0A1_0" departPos="5.10" departSpeed="0.00" departDelay="0.00" arrival="239.20" arrivalLane="A0bottom0_1" arrivalPos="500.00" arrivalSpeed="13.18" duration="210.20" routeLength="1494.90" waitingTime="39.80" waitingCount="2" stopTime="0.00" timeLoss="99.67" rerouteNo="0" devices="tripinfo_108 routing_108" vType="human" speedFactor="0.97" vaporized=""/>